400
Atoms. Timestep: 0
1 -2.74582 -17.5612 -13.6154
1 -5.12496 18.1149 -8.69349
1 -7.21791 -1.23316 -4.52434
1 -6.11584 9.83572 -3.11219
1 -16.2227 -5.66651 -9.91864
1 -12.2553 10.6262 -3.99061
1 -8.20427 3.14577 -3.19026
1 -5.63124 12.9186 -12.9319
1 -2.91664 6.87282 -9.69793
1 -19.1825 13.0137 14.6954
1 -17.2581 11.2606 18.5952
1 -6.65969 13.5052 -1.50438
1 -2.27864 13.8085 -4.88076
1 -13.8196 -15.9058 -6.23506
1 17.577 5.20026 7.35689
1 -17.5716 8.81775 2.22405
1 -9.63573 11.0874 -14.8854
1 -12.0109 -19.6945 -14.3429
1 16.3135 10.5245 5.59195
1 15.8085 18.0686 18.3093
1 5.08872 -12.5071 -5.46603
1 -13.9355 -10.7575 -3.1224
1 5.88042 17.5467 -2.35784
1 -12.1296 9.63118 -8.47119
1 18.3287 -11.0574 -15.3637
1 3.31297 -11.6993 -13.951
1 11.037 -7.20905 -15.3521
1 -8.01473 -18.8466 -9.29894
1 13.4386 -11.3872 -10.7669
1 4.41944 -6.75874 -12.8328
1 -0.753974 -10.3718 -14.4466
1 -12.8096 6.96782 4.36866
1 -7.02174 18.4407 -12.7947
1 -5.71824 14.1358 -17.0343
1 14.0016 17.9529 5.13571
1 2.67532 -10.9965 -9.95188
1 0.9839 -9.18888 7.7384
1 -10.1922 -11.6489 -6.23369
1 -12.0656 2.09896 4.22765
1 -15.6593 2.72906 0.509527
1 -9.84556 7.40783 -1.44424
1 19.1669 -14.3021 -12.294
1 -19.9953 3.58293 -0.725005
1 12.5349 13.457 6.82953
1 -14.5902 -2.46086 13.9324
1 7.75098 19.6292 -6.08445
1 15.3626 -16.2862 -9.84727
1 13.5846 14.112 18.6992
1 -9.25401 4.24412 -16.13
1 -8.43958 -9.2505 -10.595
1 18.3311 18.5692 5.71794
1 4.77152 -16.6379 -5.67708
1 15.9457 6.26259 3.75743
1 -16.1767 11.8363 -3.59513
1 -17.5698 -11.5406 -11.262
1 -18.9607 7.86752 14.8509
1 -1.12428 -6.87211 -9.45917
1 18.6088 -6.53047 -8.18484
1 -9.85 -6.15454 -7.10088
1 5.39567 -13.9188 -9.55262
1 -14.1085 -7.58483 -5.90203
1 0.29343 -16.985 -16.2395
1 16.9384 14.6318 6.68755
1 -6.05556 6.19069 -12.8413
1 -9.15669 12.8856 -5.45477
1 -6.242 -14.5919 -10.7207
1 -17.5033 -3.61077 -14.953
1 0.985161 15.0363 -18.4462
1 -17.6771 -8.73266 -7.99654
1 -2.71221 -15.0981 -8.74519
1 -0.688681 6.09438 -14.7956
1 -4.95829 7.11332 0.434088
1 0.01922 -14.9395 11.5659
1 2.1322 -16.7275 -9.16747
1 6.83773 15.6892 -5.52744
1 2.4096 10.9004 0.460602
1 18.2808 -10.5055 -10.8547
1 -19.1575 -3.85121 -6.21134
1 17.4338 15.3722 14.3706
1 -3.09994 10.0332 -14.2086
1 11.3537 12.6553 11.1344
1 -13.3733 8.81456 0.564023
1 1.67664 14.0579 -13.6346
1 9.12746 17.7051 -14.5434
1 -17.4785 7.18239 -2.08357
1 4.80626 16.9331 -11.4457
1 7.13253 -4.23419 -9.273
1 -9.33061 7.0895 -5.6368
1 14.0665 13.0449 -0.226351
1 15.3443 12.0167 9.74965
1 -2.3413 17.2183 -12.4968
1 17.5028 7.97269 11.9715
1 -18.0339 15.3846 -18.0464
1 -4.7621 19.2587 -16.5506
1 -1.77741 12.6664 -11.3216
1 8.49613 -16.9196 -8.34919
1 -6.39104 -5.93234 0.738502
1 -5.77826 -10.8027 -6.99401
1 12.7371 7.85128 8.72821
1 6.86118 -5.50049 -1.76266
1 -0.456475 19.7069 -19.5629
1 4.43793 -18.5437 -13.1988
1 10.9676 17.4394 19.4404
1 19.4346 13.1911 3.95637
1 -8.65628 -4.65773 -2.75109
1 -14.6768 13.0506 0.675497
1 8.07474 19.5577 -17.8848
1 -18.1102 19.6305 -3.12683
1 9.37149 -2.2636 0.738926
1 14.7029 18.9145 10.3839
1 15.5997 19.1963 -13.4344
1 9.6702 6.36203 10.7585
1 0.0377378 -3.24837 -15.9288
1 18.8476 13.4497 19.5258
1 16.3475 -15.8175 -5.05382
1 -16.6717 -2.97495 -1.14856
1 -18.9519 -15.4345 -3.94683
1 6.09683 -9.11856 3.04705
1 10.0941 -11.5595 -8.3588
1 12.111 -13.0306 -4.2205
1 2.01339 -7.78487 -16.4605
1 1.2238 10.7397 -7.30691
1 -10.1649 7.1257 -13.1538
1 12.2512 -15.4707 -0.167647
1 3.64461 8.50257 -4.40224
1 -19.2096 5.07339 3.81163
1 -15.7266 -4.57281 19.8463
1 -10.9222 -14.6069 -11.0444
1 -12.576 5.25546 -3.63518
1 19.6776 15.1465 -14.1405
1 -4.60898 -15.2906 -4.17042
1 17.3302 9.26878 16.1026
1 -15.4265 0.0169727 10.1808
1 7.79299 -13.9762 -2.25908
1 -3.69716 -17.6332 -18.7389
1 -3.31799 -11.8009 -11.398
1 -3.80012 -12.7088 -15.1364
1 9.21682 -17.6152 -14.1638
1 -19.3994 -7.304 -12.7839
1 -9.50982 3 1.13548
1 -8.67841 -15.4099 -7.14413
1 1.64814 5.67415 10.544
1 -19.1532 15.5591 0.809986
1 -16.3047 -10.9506 18.5146
1 -5.51704 2.40579 -14.7923
1 14.3311 -8.49425 -0.41761
1 -11.8398 7.33059 -18.4135
1 -16.6247 6.11494 6.91865
1 -12.7282 16.8057 0.451139
1 19.8373 -2.12251 17.0427
1 12.5228 1.55041 -0.424492
1 15.0101 -14.553 -14.3826
1 12.36 -17.8404 -7.49168
1 -4.78187 9.62131 18.4845
1 -9.73428 -4.53098 3.64128
1 19.7465 -1.52002 -18.6069
1 11.3951 -5.12392 -10.0805
1 -10.6878 12.8642 -0.571632
1 -12.475 -2.49873 -18.8784
1 9.04867 11.7762 14.8542
1 -8.98734 -19.2955 -4.07949
1 3.3669 -6.05658 -8.43106
1 16.6298 -10.259 -6.29117
1 -0.0681543 -15.6312 16.0128
1 -14.9966 -16.4442 -0.420372
1 -8.49759 -1.11568 -14.0147
1 -4.16959 -13.1687 14.4719
1 3.65608 -18.1613 15.0846
1 4.904 -6.67645 -19.5773
1 -11.8975 -19.6682 -1.40405
1 -6.18695 -15.71 17.3053
1 4.91834 -13.6793 12.0301
1 -4.85972 0.818503 14.5435
1 18.285 5.81887 -4.86516
1 -3.66512 -6.63416 -6.1287
1 -2.7726 9.98547 -6.84977
1 16.36 15.4779 -18.1381
1 -14.8077 -9.04557 -12.6666
1 -8.69879 -15.0195 -3.07367
1 -14.3696 -12.2898 -7.97109
1 3.50695 -19.1305 -18.926
1 -7.42152 7.87967 -16.5196
1 4.19065 -13.0233 7.71885
1 11.7439 -8.81548 4.19004
1 -16.2215 18.8981 0.576458
1 6.75138 -9.12709 -15.9163
1 12.9994 -8.23004 -4.72847
1 -2.45458 14.0946 19.6031
1 -17.5101 -12.5806 0.559531
1 19.9196 -13.3445 -7.8448
1 7.19491 14.8618 19.89
1 -19.7811 -5.65804 19.0108
1 -1.50569 -10.7834 -6.89513
1 -8.12215 13.6206 3.04627
1 -14.4396 16.8987 -3.65809
1 8.50596 11.4134 -17.7304
1 -4.95836 4.9319 -5.42217
1 -8.59946 -10.7834 1.68034
1 9.9858 -12.9581 -13.2858
1 6.49674 -9.99776 -11.0133
1 0.321387 -5.38898 -19.8867
1 17.0815 0.248558 -15.5632
1 -19.8592 -17.5047 1.0469
1 -19.6567 16.8627 17.5651
1 -6.53023 16.1004 5.9442
1 -7.42415 4.25978 7.87186
1 0.94765 16.896 -10.1712
1 7.50268 10.1879 10.3205
1 0.47245 4.23698 -3.94996
1 8.51449 -5.71376 4.74364
1 0.734528 -15.2726 -5.13651
1 3.80307 13.0769 -9.39642
1 0.648357 10.3725 -15.7982
1 -4.7154 19.918 -4.52571
1 7.54354 2.5881 10.8101
1 -10.933 -15.5654 14.6613
1 -17.7372 -8.39299 -17.8441
1 11.5524 15.758 -6.94618
1 18.8168 -5.6137 -16.1847
1 15.8772 -4.60894 17.9684
1 13.5869 16.4261 -2.85614
1 -17.7048 3.41186 -4.62433
1 -19.9063 -18.4672 -7.67086
1 -6.44852 -9.85746 19.1369
1 7.29092 -10.1616 19.1873
1 -7.66121 -9.31 -2.38649
1 -18.7927 -9.32583 -2.79104
1 -18.0527 1.57899 5.6997
1 9.77835 14.4531 -1.04527
1 12.8436 -3.51336 -2.71015
1 -5.03184 -14.1528 0.49308
1 9.18721 -9.59486 -2.78451
1 -11.852 -13.0714 -18.1194
1 15.326 -8.06919 -14.9541
1 -16.5378 -0.514406 -17.2796
1 -0.86384 9.44517 -2.43553
1 11.7174 9.39494 -6.9514
1 -2.70903 6.17904 16.0371
1 -17.9876 -12.4864 -16.6006
1 17.5793 4.10264 18.2789
1 -3.00892 0.737113 -3.41723
1 -19.5987 19.3355 -18.5714
1 -2.30887 1.97669 -10.0858
1 -3.00638 18.2295 8.20725
1 4.28221 10.4999 13.0358
1 3.09572 -0.0309869 -4.10602
1 3.64555 4.58274 6.05003
1 2.67131 8.05642 3.52754
1 6.5779 11.9288 1.00965
1 -8.73525 -19.6798 2.65425
1 5.71639 17.4405 17.6558
1 -10.1761 10.2407 5.8466
1 -4.33932 -3.87215 -11.9202
1 17.8384 -14.3465 13.6527
1 4.05894 8.24588 8.40784
1 -17.1149 -16.9517 10.8872
1 8.87162 14.583 -10.879
1 -8.63776 -6.39189 -13.9063
1 -9.06751 8.07392 10.1926
1 16.6724 -7.20338 9.12353
1 15.5781 19.4816 -7.53103
1 -7.81174 0.227185 3.89634
1 16.956 15.6435 1.64395
1 11.8712 2.83845 8.62951
1 -8.68682 -15.0036 1.55722
1 13.0186 -18.7374 1.7268
1 18.4729 0.653796 -3.25478
1 14.5259 2.02507 -5.18092
1 -15.3157 10.513 5.40889
1 6.65897 -18.0907 11.8968
1 13.0214 -5.57976 7.12797
1 -3.6002 12.2804 3.66042
1 11.5131 -17.0925 -18.1685
1 13.4828 -12.9493 8.16581
1 16.4191 -5.99711 -3.90208
1 17.216 -10.9302 7.16272
1 7.9668 -1.25229 18.5809
1 -12.9068 0.442075 -14.2983
1 17.3778 -8.56267 19.7374
1 -12.7894 19.8128 4.63918
1 -17.494 7.23334 -6.75669
1 -15.7099 15.2352 -12.3168
1 -6.70921 16.4573 -4.72197
1 0.406203 -11.0919 2.65175
1 -1.07125 10.6944 15.8224
1 -10.152 -15.1632 18.596
1 -12.7211 15.1942 5.51034
1 9.80532 17.3023 7.69737
1 3.66839 17.9206 -16.0013
1 12.6969 18.1623 14.8152
1 -10.0147 0.896754 16.0783
1 17.3746 8.80976 -7.89627
1 -5.77592 -10.5675 5.02754
1 10.748 -0.102537 -4.08701
1 14.9683 -11.6309 12.1593
1 8.421 -6.44591 -5.5894
1 17.2434 1.12685 9.78588
1 -3.93097 2.52744 2.85019
1 -13.6563 -6.6502 8.50957
1 19.7232 -14.8854 7.98049
1 11.2421 -1.25485 -16.7211
1 12.8591 -1.17954 -11.5264
1 -14.5291 -6.68959 -1.25902
1 7.00132 -18.5613 -0.0127275
1 -5.58092 -13.8648 -18.4432
1 -6.56737 13.4988 13.7624
1 13.4341 6.47641 -3.26542
1 7.46057 2.34706 6.52088
1 -12.1961 -12.8223 0.330674
1 7.69934 9.08138 5.99366
1 -19.6599 5.65303 11.2186
1 10.7938 1.82916 -8.87486
1 15.0155 -18.4108 -2.10223
1 4.53846 -19.8859 -8.66857
1 14.8793 -16.2392 10.6796
1 -12.1985 -18.7674 -9.05472
1 16.049 15.1933 -12.4218
1 -0.946156 -19.4146 -7.91375
1 13.0961 -17.3736 13.9809
1 1.42579 -12.5022 -19.655
1 19.7331 12.5487 -2.42937
1 -3.55388 -1.20192 1.05993
1 -9.68726 -13.2355 6.11381
1 1.74723 -4.64255 5.97059
1 1.78788 6.33422 -9.10378
1 -10.9645 -7.39803 1.24311
1 4.03278 -2.98087 -17.9965
1 0.958748 -2.15447 -0.442111
1 -6.56955 5.08582 16.3609
1 -17.1511 -7.03155 15.7669
1 5.722 5.67783 13.9164
1 -16.8823 -18.4417 5.99714
1 -13.8847 4.45636 -8.51052
1 -11.1011 -11.2778 -14.3179
1 8.27082 -4.34314 -17.4554
1 -5.74892 -5.72036 5.98794
1 -1.11088 7.83228 -18.5351
1 -3.17753 -2.41499 11.3873
1 5.23967 -4.86957 8.32062
1 9.31466 -12.2148 13.2884
1 14.8794 -17.7796 17.5661
1 4.08159 -0.715971 6.04127
1 12.8519 -7.19609 11.8014
1 3.8811 -2.88069 17.5812
1 5.969 -8.40461 15.2634
1 -14.7901 -15.5456 15.7364
1 -15.3253 18.4176 8.68093
1 -4.00808 -7.02895 -15.4543
1 2.77463 16.9565 -5.606
1 1.74076 -11.0041 15.2789
1 -15.4173 12.7872 -8.44015
1 -1.15087 3.37376 6.64006
1 17.9475 10.2486 1.04412
1 -14.1531 3.08354 -18.381
1 -19.4875 17.9142 -10.3764
1 15.0734 11.4101 -3.82767
1 15.0444 -10.9618 16.8893
1 -7.84216 12.4947 8.44301
1 16.5264 5.82148 -0.440057
1 -8.11715 3.04699 12.9138
1 0.990577 2.62637 -7.77456
1 -2.95889 -8.64574 1.79854
1 18.2967 17.6067 -5.05883
1 -3.23722 -7.14513 10.6543
1 -1.14736 -17.8315 -0.929275
1 -19.2602 -10.4789 13.9295
1 2.74268 2.27439 1.4644
1 7.53068 7.05062 -6.2522
1 -18.1281 -19.4042 -14.5815
1 9.3584 -1.17245 4.86563
1 5.60951 -9.47757 7.20554
1 -13.7249 -10.0412 15.0768
1 -18.2291 16.2741 10.7109
1 -2.749 7.96743 3.68392
1 -17.1084 17.3567 4.59469
1 1.36836 2.32169 -15.7722
1 16.6501 -13.202 1.91508
1 -19.8843 -18.6247 16.2901
1 3.72892 -5.76735 12.508
1 -5.90018 13.1467 -8.56111
1 8.88858 10.0095 -2.63004
1 5.87706 3.54625 -4.93507
1 -7.33364 -8.24084 13.6494
1 -15.9819 -0.187087 -10.8859
1 -17.2207 2.40576 15.1474
1 4.15057 10.3488 -17.442
1 -8.56612 17.3383 -18.0276
1 -19.1702 -11.3477 9.47329
1 17.589 -16.7562 -18.646
1 -15.496 7.04855 -14.5584
1 -10.5146 -12.751 10.3052
1 -14.4534 11.2222 -13.5071
1 19.9935 -1.94285 0.936335
1 -10.5878 15.7286 13.8242
1 1.47237 15.647 11.3479
1 -1.40313 -10.6668 12.768
1 -10.0116 -2.03693 -10.2192
1 -14.3049 -15.9109 -12.2964
1 5.01761 12.8838 16.2723
1 -6.62698 -12.0082 9.18887
400
Atoms. Timestep: 1000
1 -2.61282 -17.5744 -13.4576
1 -5.13541 18.0735 -8.7955
1 -7.02159 -1.23892 -4.38473
1 -6.02284 9.75337 -3.3123
1 -16.4018 -5.62566 -9.86968
1 -12.1881 10.5656 -4.08715
1 -8.11483 3.19751 -3.21533
1 -5.74403 12.8065 -12.8328
1 -2.94806 6.95695 -9.48554
1 -19.2306 12.9189 14.605
1 -17.4434 11.6585 18.5528
1 -6.7705 13.5472 -1.68289
1 -2.40536 14.1135 -4.803
1 -13.6056 -16.286 -6.17993
1 17.4835 4.7622 7.34286
1 -17.4763 8.80815 2.00982
1 -9.6772 11.0762 -14.8935
1 -12.1152 -19.5098 -14.4079
1 16.5032 10.5382 5.55758
1 15.9002 18.1425 18.5733
1 5.21602 -12.3986 -5.55565
1 -13.7143 -10.545 -3.24382
1 6.02046 17.3743 -2.38438
1 -12.2915 9.31384 -8.63727
1 18.5767 -11.158 -15.429
1 3.27393 -11.6535 -13.8961
1 11.1246 -7.37278 -15.5209
1 -8.14107 -18.8365 -9.38915
1 13.4806 -11.8373 -10.7117
1 4.63545 -6.61379 -13.155
1 -0.643227 -10.3614 -14.4816
1 -12.7712 7.08694 4.48964
1 -6.82694 18.3175 -12.8708
1 -5.80019 14.1458 -17.0267
1 13.8271 17.7694 5.18596
1 2.2838 -10.8256 -9.77982
1 0.935175 -8.91027 7.73175
1 -9.95834 -11.8116 -6.17083
1 -12.2407 1.93615 4.20931
1 -15.606 2.64189 0.66708
1 -9.65926 7.32362 -1.42311
1 19.1371 -14.1571 -12.2738
1 -19.9271 3.6522 -0.778246
1 12.6771 13.404 6.64182
1 -14.6 -2.5636 13.7932
1 7.41951 19.4264 -5.81643
1 15.6342 -16.2029 -10.0142
1 13.637 14.1645 18.8399
1 -9.44752 3.95325 -16.2066
1 -8.3911 -9.2716 -10.2848
1 18.6203 18.66 5.69885
1 4.58022 -16.2781 -5.79154
1 15.8749 6.28535 3.73554
1 -15.9279 11.7398 -3.66609
1 -17.6635 -11.4336 -11.1164
1 -18.722 8.09041 14.9846
1 -1.08096 -7.01847 -9.44019
1 18.4428 -6.36483 -8.21287
1 -9.83724 -6.06968 -7.31882
1 5.27267 -13.9674 -9.66373
1 -14.0755 -7.69358 -6.16217
1 0.732565 -16.86 -16.1008
1 16.8004 14.5383 6.66949
1 -6.0052 6.00623 -12.8953
1 -8.97993 12.9127 -5.69931
1 -6.19955 -14.6177 -10.6474
1 -17.4543 -3.73792 -14.8809
1 0.879981 14.9619 -18.5881
1 -17.8134 -8.45255 -7.7678
1 -2.59971 -15.1605 -8.76799
1 -0.717653 6.19021 -14.862
1 -5.08108 6.95885 0.270438
1 0.0634727 -14.9325 11.7092
1 2.2073 -16.8095 -9.33911
1 6.74551 15.4775 -5.59281
1 2.73122 10.7904 0.463405
1 18.3663 -10.4667 -10.744
1 -19.7104 -3.94427 -6.23371
1 17.4818 15.6491 14.333
1 -3.0417 9.94383 -14.2896
1 11.1639 12.5744 10.8838
1 -13.2645 8.83113 0.547884
1 1.27707 13.874 -13.5347
1 9.11588 17.644 -14.4301
1 -17.4052 7.21219 -1.97767
1 5.02823 16.8469 -11.4334
1 7.15164 -4.47085 -9.23494
1 -9.0523 7.03483 -5.77027
1 13.9884 12.8997 -0.221233
1 15.341 12.1417 9.64482
1 -2.44713 17.508 -12.4625
1 17.6022 7.85915 11.8274
1 -17.8264 15.5702 -18.0291
1 -4.74717 19.2322 -16.5849
1 -1.76806 12.2821 -11.2055
1 8.3646 -16.7604 -8.28148
1 -6.267 -5.86811 0.754892
1 -5.83745 -10.7976 -7.09287
1 12.7352 7.67445 8.80721
1 7.11827 -5.42998 -1.9271
1 -0.377563 19.8006 -19.6174
1 4.45989 -18.3994 -13.2275
1 10.5287 17.4204 19.4537
1 19.5521 13.3505 3.8886
1 -8.51125 -4.73621 -2.78542
1 -14.6988 13.0318 0.802526
1 7.83051 19.452 -17.7746
1 -18.0734 19.5993 -3.17741
1 9.4846 -2.33176 0.7946
1 14.8757 18.9719 10.3129
1 15.6784 19.1974 -13.4252
1 9.56172 6.18807 11.1335
1 -0.0606907 -3.58284 -15.9822
1 18.6098 13.5124 19.873
1 16.3459 -15.7535 -5.2357
1 -16.8861 -3.13647 -1.2343
1 -18.8565 -15.3416 -4.2321
1 6.08913 -9.25231 3.12368
1 10.0516 -11.4025 -8.26621
1 12.0074 -12.9044 -4.29299
1 2.03807 -7.98196 -16.5038
1 1.11989 10.7761 -7.21797
1 -10.2155 6.83869 -13.0385
1 11.8719 -15.2308 -0.0069934
1 3.37433 8.46991 -4.53721
1 -19.21 5.24119 3.71033
1 -15.6337 -4.42775 19.7863
1 -10.9327 -14.486 -10.7846
1 -12.5936 5.29761 -3.74941
1 19.6154 14.8513 -14.1709
1 -4.69998 -15.2944 -4.19555
1 17.4855 9.41402 15.8712
1 -15.3468 0.340323 10.186
1 7.63134 -13.9559 -2.22651
1 -3.84477 -17.5785 -18.8538
1 -3.22283 -11.8162 -11.2548
1 -3.75626 -12.5039 -15.298
1 9.43846 -17.8022 -14.245
1 -19.5643 -7.55287 -12.8033
1 -9.43592 3.27894 1.10357
1 -8.66676 -15.3606 -7.0831
1 1.57094 5.64631 10.3915
1 -18.7921 15.6785 0.721678
1 -16.3945 -10.9323 18.2484
1 -5.49464 2.43912 -14.73
1 14.5433 -8.58473 -0.267382
1 -11.756 7.16041 -18.2881
1 -16.4949 6.18352 6.8107
1 -12.6936 16.838 0.49117
1 19.78 -2.33733 16.9856
1 12.5315 1.50292 -0.363018
1 15.1533 -14.5798 -14.4792
1 12.3601 -17.4833 -7.65911
1 -4.774 9.82573 18.6943
1 -9.57965 -4.69683 3.64238
1 19.8683 -1.29409 -18.6227
1 11.5647 -5.10438 -9.79357
1 -10.7083 12.8743 -0.599751
1 -12.4582 -2.23122 -18.6243
1 9.12074 11.8909 15.0764
1 -8.83532 -19.3062 -3.94201
1 3.37051 -5.87708 -8.26399
1 16.6881 -10.3408 -6.37523
1 -0.00512358 -15.624 15.9874
1 -14.8623 -16.5387 -0.260213
1 -8.52884 -1.11457 -13.8722
1 -4.32328 -12.9121 14.4774
1 3.6566 -18.4465 14.9319
1 4.93768 -6.70433 -19.5094
1 -12.1346 -19.7133 -1.41393
1 -6.313 -15.604 17.2865
1 5.04461 -13.7621 12.2625
1 -5.27056 0.822728 14.2405
1 18.1378 5.95361 -4.70361
1 -3.62089 -6.45739 -6.09477
1 -2.91902 10.0451 -6.69463
1 16.3166 15.6423 -17.9262
1 -14.8149 -8.87855 -12.5738
1 -8.94145 -15.0102 -2.9677
1 -14.3438 -12.3272 -8.07081
1 3.21513 -19.1804 -18.9227
1 -7.4327 7.7979 -16.4274
1 4.0723 -13.1435 7.5935
1 11.6419 -8.82459 3.93843
1 -16.3249 19.14 0.746092
1 6.47956 -9.07287 -15.8758
1 12.9731 -8.15946 -4.76709
1 -2.49361 14.3671 19.6385
1 -17.4566 -12.6156 0.691221
1 19.9728 -13.4259 -7.76777
1 7.45214 14.8223 20.0571
1 -19.7561 -5.54853 18.9277
1 -1.39769 -10.7704 -6.78381
1 -7.97642 13.7416 3.03364
1 -14.3039 16.7126 -3.7115
1 8.30709 11.6116 -17.6799
1 -4.70354 4.96344 -5.32084
1 -8.48752 -10.7742 1.73385
1 10.039 -13.1089 -13.1562
1 6.40223 -9.7496 -10.886
1 0.566167 -5.18996 -19.9339
1 17.1048 0.221724 -15.1568
1 -19.8468 -17.4339 1.04255
1 -19.472 16.7238 17.699
1 -6.37059 15.9934 5.8072
1 -7.58026 4.11531 7.99615
1 1.08689 16.9781 -10.136
1 7.64089 9.97971 10.7691
1 0.52992 4.22909 -4.2596
1 8.68725 -5.7965 4.79903
1 0.471013 -15.2471 -5.17961
1 3.88678 13.0572 -9.30046
1 0.656163 10.4548 -15.7691
1 -4.61976 20.0043 -4.4544
1 7.37935 2.48701 10.7711
1 -11.0057 -15.6337 14.5374
1 -17.6695 -8.27602 -18.0563
1 11.6269 16.123 -6.97911
1 18.938 -5.63265 -16.1216
1 15.801 -4.31282 17.862
1 13.827 16.4022 -2.79744
1 -17.6507 3.31513 -4.73369
1 -19.915 -18.4879 -7.60309
1 -6.57414 -9.67121 19.2294
1 7.34089 -9.96997 19.2962
1 -7.73052 -9.36495 -2.3601
1 -18.6951 -9.28817 -3.02931
1 -18.1424 1.56695 5.52714
1 9.86103 14.6143 -1.04401
1 12.9739 -3.55099 -2.9809
1 -5.02167 -14.0325 0.481183
1 9.23905 -9.72736 -2.64629
1 -11.9411 -13.3223 -18.0448
1 15.2638 -7.89245 -15.0256
1 -16.3832 -0.822664 -17.3453
1 -1.02883 9.64539 -2.32611
1 11.8043 9.64712 -6.94589
1 -2.76411 6.38334 16.1223
1 -17.9675 -12.2132 -16.7214
1 17.4301 3.78995 18.4439
1 -3.0094 0.566804 -3.25763
1 -19.7304 19.3136 -18.382
1 -2.30806 2.02795 -10.0027
1 -3.17056 18.2561 8.16972
1 4.17745 10.6017 12.9114
1 3.27101 -0.185266 -3.96672
1 3.77854 4.46644 6.2693
1 2.8682 8.05742 3.60936
1 6.78544 11.9014 1.06993
1 -8.88688 -19.8145 2.56043
1 5.67158 17.5959 17.6813
1 -9.9673 10.4007 5.7481
1 -4.47209 -3.86719 -11.9087
1 17.9916 -14.3419 13.4663
1 4.18234 8.24738 8.38082
1 -17.0358 -16.8888 10.9123
1 9.12748 14.5912 -10.885
1 -8.61064 -6.50903 -13.9055
1 -9.01838 7.85342 10.0509
1 16.531 -7.32245 9.29125
1 15.471 19.2691 -7.49434
1 -7.65414 0.29809 4.12102
1 17.134 15.5727 1.58388
1 11.9009 2.95384 8.32293
1 -8.8392 -14.9677 1.82028
1 13.0935 -18.5475 1.91981
1 18.5373 0.666912 -3.12044
1 14.4315 1.9168 -5.06624
1 -15.4707 10.6217 5.116
1 6.5478 -18.2168 12.1462
1 12.908 -5.56909 6.9325
1 -3.33622 12.3111 3.65981
1 11.4454 -17.1407 -18.0294
1 13.42 -13.0401 8.12635
1 16.3104 -5.94684 -3.9501
1 17.1905 -11.0927 7.08795
1 8.12669 -1.57786 18.4857
1 -12.9856 0.422809 -14.6262
1 17.4039 -8.31611 19.6054
1 -13.0031 19.6957 4.65018
1 -17.4241 7.25065 -6.64807
1 -15.6989 15.163 -12.2008
1 -6.59198 16.4722 -4.56353
1 0.426369 -11.2818 2.58247
1 -1.15752 10.9053 15.673
1 -10.1684 -15.4031 18.646
1 -12.6222 15.1104 5.48123
1 9.78257 17.4692 7.86938
1 3.7901 17.8479 -16.2833
1 12.7571 18.2367 14.8439
1 -10.0558 1.06534 16.0415
1 17.423 8.75851 -7.78168
1 -5.74591 -10.761 5.09397
1 10.9641 -0.16136 -3.6883
1 15.1319 -11.4927 12.1512
1 8.56579 -6.43832 -5.4724
1 17.2875 0.897477 9.67296
1 -3.88307 2.55414 3.0616
1 -14.0686 -6.41843 8.6297
1 19.5975 -15.18 7.91331
1 11.1147 -1.41338 -16.6097
1 12.968 -1.24478 -11.6499
1 -14.6627 -6.88612 -1.4099
1 7.18759 -18.3664 -0.164856
1 -5.7987 -14.03 -18.6144
1 -6.71525 13.4659 13.7617
1 13.3525 6.33915 -3.12273
1 7.35132 2.4344 6.36334
1 -12.0165 -12.6073 0.237054
1 7.73323 9.28451 5.94675
1 -19.5744 5.70707 11.2628
1 10.8316 2.0594 -8.89388
1 14.8781 -18.4503 -2.00212
1 4.39076 -19.9422 -8.78788
1 14.985 -16.4359 10.7107
1 -12.2417 -18.9489 -8.90971
1 16.2821 15.1356 -12.4269
1 -0.943515 -19.2622 -7.80841
1 13.0201 -17.4266 14.1387
1 1.34468 -12.6789 -19.7159
1 19.6588 12.7588 -2.57906
1 -3.72589 -1.34379 1.14103
1 -9.5534 -13.0003 6.13681
1 1.77372 -4.43601 5.95355
1 1.86606 6.12764 -8.95264
1 -10.876 -7.48959 1.03035
1 3.96787 -2.80643 -18.0879
1 0.912503 -2.32449 -0.474316
1 -6.65359 5.07741 16.3811
1 -17.1046 -7.08483 15.7032
1 5.59487 5.58244 13.9308
1 -16.9267 -18.3779 5.85634
1 -13.7654 4.50319 -8.54573
1 -11.1999 -11.0559 -14.1947
1 8.51548 -4.48127 -17.6691
1 -5.91361 -5.71046 6.1195
1 -1.40048 8.0178 -18.2846
1 -3.11658 -2.6489 11.2712
1 5.39944 -5.14591 8.17853
1 9.05291 -12.1883 13.412
1 14.87 -18.0547 17.6402
1 3.90739 -0.772807 6.21416
1 12.8147 -7.03255 11.7448
1 4.05418 -2.84801 17.5727
1 5.93595 -8.41825 15.3282
1 -14.9198 -15.069 15.7832
1 -15.4063 18.5203 8.51845
1 -4.08518 -7.15946 -15.4644
1 2.9926 17.1494 -5.62757
1 1.75406 -11.0919 15.3832
1 -15.2257 12.8276 -8.24298
1 -1.15807 3.38251 6.72653
1 17.7845 10.4812 0.842859
1 -14.2409 3.03424 -18.5577
1 -19.2103 18.0671 -10.4403
1 15.2072 11.4486 -3.95095
1 14.9327 -11.0314 16.8957
1 -7.79154 12.3547 8.60906
1 16.4851 5.82769 -0.395452
1 -8.26346 3.00522 12.7257
1 1.15164 2.2978 -7.72495
1 -3.23872 -8.72194 1.84729
1 18.3266 17.4258 -4.98332
1 -3.33677 -7.00928 10.6213
1 -1.13114 -17.7002 -0.891791
1 -19.4908 -10.4199 13.8976
1 2.88968 2.24761 1.29489
1 7.50004 7.11497 -6.30721
1 -18.221 -19.4086 -14.4525
1 9.60198 -1.03117 4.89456
1 5.62811 -9.40948 7.19229
1 -13.7929 -9.98147 15.0513
1 -18.35 16.2752 10.273
1 -3.09764 7.92761 3.93409
1 -17.4035 17.3135 4.62423
1 1.52191 2.23491 -15.7963
1 16.4377 -13.1686 1.89261
1 -19.7849 -18.7308 16.1882
1 3.44454 -5.92049 12.1529
1 -6.04648 13.2231 -8.67676
1 8.87009 9.86395 -2.52718
1 5.91875 3.53614 -4.93567
1 -7.43637 -8.46873 13.5484
1 -16.1878 -0.186064 -10.8742
1 -17.4882 2.29173 15.2056
1 3.99246 10.4211 -17.7461
1 -8.24039 17.3296 -18.1732
1 -18.9887 -11.3615 9.39065
1 17.4987 -16.8782 -18.5872
1 -15.3356 6.98823 -14.4837
1 -10.6658 -12.8181 10.3287
1 -14.624 11.3653 -13.7661
1 20.0269 -1.845 0.710204
1 -10.629 15.7874 14.1033
1 1.39701 15.4501 11.3229
1 -1.4204 -10.6781 12.6146
1 -10.0887 -1.95116 -10.3774
1 -14.4172 -15.9523 -12.3129
1 5.26134 12.8186 16.2426
1 -6.47419 -12.0528 9.52837
400
Atoms. Timestep: 2000
1 -2.53502 -17.7258 -13.5397
1 -5.09113 18.1028 -8.90105
1 -7.1767 -1.12662 -4.71106
1 -5.89858 9.82839 -3.0347
1 -16.3193 -5.68226 -10.1246
1 -12.1836 10.6573 -3.89163
1 -8.20242 3.68574 -3.37499
1 -5.77739 12.6976 -12.8685
1 -2.9914 6.85378 -9.37717
1 -19.0835 12.7963 14.6126
1 -17.1733 11.8833 18.5737
1 -6.7286 13.5785 -1.43524
1 -2.56082 14.2687 -4.92171
1 -13.41 -16.105 -6.24462
1 17.5331 4.72776 7.1823
1 -17.3116 8.93754 2.04688
1 -9.66385 11.0861 -14.6511
1 -11.9207 -19.3051 -14.3205
1 16.431 10.483 5.51109
1 15.9028 18.0759 18.3547
1 5.19862 -12.5563 -5.51235
1 -13.7616 -10.6568 -3.29991
1 5.94777 17.5447 -2.34623
1 -12.5555 9.2618 -8.76626
1 18.6714 -10.9878 -15.2824
1 3.02951 -11.5962 -13.7574
1 11.0896 -7.161 -15.5136
1 -8.09576 -18.8895 -9.26154
1 13.2455 -11.597 -10.9381
1 4.78418 -6.74678 -13.0329
1 -0.606648 -10.2675 -14.6129
1 -12.7177 7.30545 4.31864
1 -6.95357 18.3325 -12.7246
1 -5.64709 14.1233 -17.086
1 13.849 17.8538 5.20832
1 2.16055 -10.707 -9.65316
1 1.05544 -8.99277 7.69682
1 -10.0174 -11.7921 -6.04327
1 -12.3493 2.06077 4.19613
1 -15.6262 2.1083 0.847492
1 -9.86652 7.2954 -1.3987
1 19.1849 -14.0139 -12.266
1 -19.8837 3.51055 -0.728339
1 12.7617 13.6721 6.9357
1 -14.4682 -2.54879 13.6625
1 7.56247 19.4949 -5.66
1 15.929 -16.0939 -9.87971
1 13.3392 14.3734 18.8085
1 -9.2492 4.09949 -16.2404
1 -8.33524 -9.33762 -10.2745
1 18.5898 18.7173 5.88562
1 4.44357 -16.4004 -5.90214
1 15.9149 6.35199 3.82039
1 -15.9775 11.7607 -3.55171
1 -17.8884 -11.4937 -11.0131
1 -18.7904 8.0724 15.0877
1 -0.926432 -6.99717 -9.31755
1 18.4797 -6.5053 -8.10911
1 -9.77176 -6.47368 -7.39619
1 5.23642 -14.0485 -9.47737
1 -13.9781 -7.5925 -5.89806
1 0.558937 -17.1268 -15.9819
1 16.5556 14.7137 6.49309
1 -6.10645 5.96801 -12.8719
1 -8.87419 12.6567 -5.50715
1 -5.97392 -14.5463 -10.8071
1 -17.5115 -3.93682 -14.6376
1 0.874778 14.7896 -18.3743
1 -17.7457 -8.32938 -7.70307
1 -2.50042 -15.0271 -8.86504
1 -0.623829 6.36933 -14.9231
1 -5.42967 7.05382 0.43889
1 -0.0521276 -14.648 11.7999
1 2.1309 -17.0236 -9.45151
1 6.60359 15.2977 -5.58519
1 2.44699 10.741 0.377347
1 18.3635 -10.5182 -10.8123
1 -19.7933 -3.8997 -6.28279
1 17.5875 15.6096 14.2658
1 -3.27667 10.0047 -14.3813
1 11.1829 12.5057 10.8968
1 -13.1707 8.59476 0.565404
1 1.09645 13.954 -13.6882
1 8.816 17.72 -14.3584
1 -17.4636 6.99057 -2.06886
1 5.2272 16.8534 -11.4831
1 7.29357 -4.788 -9.42622
1 -9.2156 6.81186 -5.90664
1 14.0184 12.8354 -0.1674
1 15.7098 12.0388 9.75135
1 -2.46693 17.6678 -12.3383
1 17.5593 7.83771 11.8187
1 -17.973 15.4444 -18.0968
1 -4.89674 19.3379 -16.4766
1 -1.65357 12.171 -11.1977
1 8.49846 -16.9915 -8.43289
1 -6.13213 -5.98079 0.797906
1 -5.65228 -11.0555 -7.1254
1 12.7855 7.76722 8.94375
1 7.09437 -5.52369 -1.7678
1 -0.334636 19.9288 -19.5935
1 4.42045 -18.6059 -13.444
1 10.6112 17.6135 19.0981
1 19.3366 13.273 3.85222
1 -8.46687 -4.93447 -2.85982
1 -14.7651 12.9293 0.643974
1 7.60936 19.5347 -17.7532
1 -17.9531 19.899 -3.26906
1 9.30275 -2.0558 0.732692
1 14.6105 19.0323 10.3588
1 15.3994 19.2073 -13.5742
1 9.47244 6.20644 11.25
1 -0.0333321 -3.58544 -16.0093
1 18.5336 13.5639 19.9668
1 16.2124 -15.8022 -5.3267
1 -16.8765 -3.38931 -1.39852
1 -18.8562 -15.3637 -4.23001
1 5.99199 -8.93971 2.98831
1 9.81497 -11.4648 -8.07129
1 12.0412 -12.7165 -4.47134
1 2.00742 -7.72748 -16.3617
1 0.951088 11.1941 -7.20308
1 -10.4697 6.77597 -13.0167
1 11.8838 -15.2893 0.116724
1 3.3929 8.49773 -4.54739
1 -19.424 5.28141 3.80529
1 -15.4835 -4.47319 19.8176
1 -10.8558 -14.443 -10.783
1 -12.4719 5.44857 -3.78672
1 19.7053 14.5142 -14.372
1 -4.38352 -15.2745 -4.02809
1 17.8254 9.26047 15.7998
1 -15.3719 0.218288 10.2012
1 7.62633 -13.7802 -2.34943
1 -3.79099 -17.5604 -18.7977
1 -3.00029 -11.6841 -11.4222
1 -3.90502 -12.3766 -15.3218
1 9.63186 -17.7713 -14.3045
1 -19.5448 -7.41408 -13.0304
1 -9.65085 3.36413 1.07527
1 -8.50438 -15.354 -6.95845
1 1.56874 5.67121 10.2588
1 -19.0229 15.553 0.527847
1 -16.2985 -10.9524 18.2521
1 -5.20533 2.3714 -14.6616
1 14.5606 -8.83488 -0.350817
1 -11.5825 7.00101 -18.434
1 -16.3204 6.16613 6.75003
1 -12.5707 16.7277 0.463765
1 19.9086 -2.32866 16.8404
1 12.4974 1.4094 -0.34849
1 15.1343 -14.6515 -14.4485
1 12.1105 -17.648 -7.57642
1 -4.52067 9.90083 18.7356
1 -9.6529 -4.7547 3.79667
1 19.7445 -1.4308 -18.6261
1 11.6915 -5.4314 -9.68506
1 -10.7162 12.6939 -0.63321
1 -12.4535 -2.26582 -18.5861
1 9.10032 11.7864 14.9302
1 -8.89918 -19.6967 -3.67522
1 3.36786 -5.93343 -8.21899
1 16.6558 -10.2154 -6.39183
1 -0.078751 -15.7749 15.9026
1 -14.9464 -16.3665 -0.204981
1 -8.33372 -1.18199 -13.807
1 -4.26417 -13.0217 14.4942
1 3.57254 -18.419 15.2025
1 4.93738 -6.90487 -19.5817
1 -12.1624 -19.678 -1.22654
1 -6.16858 -15.7478 17.1886
1 5.00609 -14.0211 12.2929
1 -4.9884 0.675843 14.2938
1 18.2481 5.58417 -4.54137
1 -3.86408 -6.47492 -6.11924
1 -2.85075 10.0711 -6.804
1 16.2391 15.4196 -18.0548
1 -14.865 -8.96038 -12.575
1 -9.01247 -14.943 -3.13767
1 -14.3156 -12.2217 -8.09587
1 3.26283 -19.411 -19.1464
1 -7.54353 7.68471 -16.2991
1 3.98732 -13.013 7.57004
1 11.5215 -8.92602 4.09622
1 -16.3888 18.9615 0.57216
1 6.45016 -9.28857 -15.8708
1 13.0313 -8.227 -4.69339
1 -2.4067 14.5272 19.6032
1 -17.3333 -12.5446 0.61402
1 20.0266 -13.2752 -7.71067
1 7.51196 14.8381 20.1442
1 -19.9742 -5.53834 18.8519
1 -1.37761 -10.7595 -6.50159
1 -8.14419 13.8518 3.08852
1 -14.2182 16.5615 -3.54247
1 8.15554 11.6901 -17.6384
1 -4.99674 4.82617 -5.1413
1 -8.29658 -10.767 1.60897
1 10.1323 -13.0219 -13.3683
1 6.36559 -9.75553 -10.9273
1 0.588858 -5.38795 -19.8474
1 17.1162 0.181412 -15.4488
1 -19.9542 -17.3086 0.788414
1 -19.3274 16.8576 17.9092
1 -6.09693 16.0386 6.01004
1 -7.54733 4.16642 8.19985
1 1.08697 17.1258 -10.322
1 7.64406 9.99896 10.7594
1 0.382918 4.04975 -4.3243
1 8.93296 -5.70109 4.76265
1 0.347538 -15.1351 -5.34669
1 3.90206 13.1992 -9.07043
1 0.598407 10.4357 -15.8464
1 -4.61264 20.2034 -4.52577
1 7.35272 2.62844 10.794
1 -10.9743 -15.5662 14.6098
1 -17.819 -8.4678 -18.1109
1 11.6883 16.1851 -7.17175
1 18.9211 -5.59908 -16.244
1 15.6916 -4.22736 18.0836
1 14.0283 16.4171 -2.71985
1 -17.585 3.21906 -4.75188
1 -20.1047 -18.5776 -7.68488
1 -6.76082 -9.60131 19.4722
1 7.34846 -10.0801 19.2106
1 -7.77549 -9.26898 -2.38513
1 -18.6385 -9.12928 -3.01712
1 -18.0763 1.68703 5.61276
1 9.85541 14.7205 -1.07931
1 12.9499 -3.68896 -2.8777
1 -4.85925 -14.0095 0.442214
1 9.45558 -9.70531 -2.39557
1 -12.0124 -13.3995 -18.0586
1 15.2223 -8.00818 -14.9259
1 -16.4591 -0.921899 -17.539
1 -0.77933 9.69416 -2.59018
1 11.9705 9.56044 -6.76905
1 -2.96566 6.54303 16.3671
1 -17.9677 -12.1303 -16.8042
1 17.4734 4.03397 18.2296
1 -2.95774 0.690836 -3.46445
1 -19.7318 19.4603 -18.2791
1 -2.41844 2.0633 -10.0223
1 -3.08202 18.4584 8.15692
1 3.84909 10.7073 12.8746
1 3.20553 0.00986859 -4.01679
1 3.94 4.48798 6.15969
1 2.87388 7.87236 3.57213
1 6.74495 11.6512 1.26281
1 -8.92158 -19.9049 2.5619
1 5.71481 17.3462 17.8624
1 -10.0722 10.4514 5.72158
1 -4.34359 -3.90141 -11.8134
1 18.1596 -14.1529 13.5017
1 4.18792 8.37237 8.42385
1 -16.9583 -16.8609 10.8115
1 9.15289 14.4315 -10.5761
1 -8.6461 -6.36542 -14.0429
1 -9.1457 7.83208 9.96626
1 16.6472 -7.2117 9.32913
1 15.5297 19.3335 -7.31922
1 -7.67628 0.462865 4.02709
1 17.1576 15.6221 1.52639
1 11.8356 2.99199 8.08082
1 -8.87582 -14.9069 1.80114
1 12.9598 -18.7057 1.80887
1 18.3047 0.863626 -3.28604
1 14.462 1.77649 -5.06741
1 -15.4839 10.6335 5.09865
1 6.47293 -18.2394 12.1268
1 12.9822 -5.49153 7.19354
1 -3.44094 12.4577 3.64251
1 11.3267 -17.2643 -17.8312
1 13.3527 -13.1815 8.32225
1 16.3175 -5.98855 -3.81518
1 17.2615 -10.8077 7.49246
1 8.0317 -1.61548 18.7687
1 -13.1697 0.647118 -14.317
1 17.5485 -8.18794 19.5982
1 -13.0571 19.6965 4.65099
1 -17.8636 7.34999 -6.35968
1 -15.6954 15.1817 -12.2806
1 -6.70021 16.4333 -4.76489
1 0.520972 -11.1231 2.52301
1 -0.87894 10.9754 15.5634
1 -10.2207 -15.3607 18.8886
1 -12.8711 14.9676 5.42583
1 9.84878 17.3816 7.97379
1 3.71558 18.0818 -16.4579
1 12.9814 18.5611 14.7606
1 -9.71067 0.957377 15.9192
1 17.3543 8.9587 -7.79028
1 -5.94067 -10.8738 4.98831